1
TF name="Carbon" target_energy=-37.846772 comment="NIST Computational Chemistry Comparison and Benchmark Database\nNIST Standard Reference Database Number 101\nRelease 22, May 2022, Editor: Russell D. Johnson III\nhttp://cccbdb.nist.gov/\nDOI:10.18434/T47C7Z"
C     0.000000000     0.000000000     0.000000000
