2
TF name="Molecular Hydrogen" target_energy=-1.173864 comment="NIST Computational Chemistry Comparison and Benchmark Database\nNIST Standard Reference Database Number 101\nRelease 22, May 2022, Editor: Russell D. Johnson III\nhttp://cccbdb.nist.gov/\nDOI:10.18434/T47C7Z"
H     0.000000000     0.000000000    -0.370700000
H     0.000000000     0.000000000     0.370700000
